-- Generated [
-- Format      : ECLIPSE keywords (grid geometry and properties) (ASCII)
-- Exported by : Petrel 2014.8 (64-bit) Schlumberger
-- User name   : pawel
-- Date        : Saturday, April 16 2016 20:20:16
-- Project     : test.pet
-- Grid        : Copy of GarnB
-- Generated ]


MAPUNITS                               -- Generated : Petrel
  METRES /

MAPAXES                                -- Generated : Petrel
  0.00 -1000.00 0.00 0.00 1000.00 0.00 /

GRIDUNIT                               -- Generated : Petrel
  METRES /

SPECGRID                               -- Generated : Petrel
  37 37 25 1 F /

COORDSYS                               -- Generated : Petrel
  1 25 /

COORD                                  -- Generated : Petrel
  435723.83 -7289842.76 3292.20 435008.18 -7289846.73 3869.34 435791.51 -7289796.71 3290.37 435030.42 -7289829.99 3871.04 435859.19
  -7289750.65 3286.18 435052.66 -7289813.24 3874.74 435926.87 -7289704.60 3278.66 435074.90 -7289796.50 3881.13 435722.58
  -7289695.28 3414.36 435606.02 -7289711.02 3478.50 435785.78 -7289662.63 3423.54 435677.25 -7289674.04 3481.93 435831.92
  -7289631.30 3432.59 435727.37 -7289638.79 3493.58 435878.11 -7289598.66 3443.35 435790.47 -7289601.51 3499.77 435931.76
  -7289564.50 3452.50 435846.32 -7289563.50 3510.90 435984.93 -7289528.82 3463.66 435904.77 -7289524.38 3522.40 436041.59
  -7289493.00 3473.52 435965.86 -7289486.23 3533.03 436094.81 -7289458.11 3489.97 436034.41 -7289451.38 3542.49 436160.25
  -7289425.93 3495.95 436104.24 -7289418.67 3548.03 436221.26 -7289393.05 3511.17 436172.87 -7289385.69 3560.02 436285.33
  -7289358.98 3518.37 436239.99 -7289350.55 3569.61 436345.34 -7289322.41 3533.27 436301.44 -7289312.02 3587.97 436416.43
  -7289289.82 3546.09 436369.85 -7289275.89 3603.85 436468.18 -7289250.58 3557.10 436429.80 -7289236.69 3617.78 436525.72
  -7289208.26 3567.98 436489.64 -7289192.59 3628.96 436588.14 -7289165.93 3561.72 436545.48 -7289143.17 3634.07 436782.23
  -7289205.71 3348.59 436427.28 -7289008.47 4064.93 436841.68 -7289173.66 3357.34 436493.38 -7288972.10 4081.36 436901.14
  -7289141.61 3378.01 436559.49 -7288935.74 4096.32 436960.59 -7289109.56 3392.01 436625.59 -7288899.37 4114.70 437020.04
  -7289077.51 3404.18 436691.69 -7288863.01 4133.39 437079.49 -7289045.46 3415.63 436757.80 -7288826.64 4153.00 437138.95
  -7289013.41 3427.29 436823.90 -7288790.28 4172.82 437198.40 -7288981.35 3439.44 436890.00 -7288753.92 4191.68 437257.85
  -7288949.30 3451.86 436956.11 -7288717.55 4208.83 437317.31 -7288917.25 3464.30 437022.21 -7288681.19 4223.77 437376.76
  -7288885.20 3476.47 437088.31 -7288644.82 4236.26 437436.21 -7288853.15 3488.06 437154.42 -7288608.46 4246.31 437495.67
  -7288821.10 3498.73 437220.52 -7288572.09 4254.11 437555.12 -7288789.05 3508.15 437286.63 -7288535.73 4259.92 437614.57
  -7288757.00 3516.01 437352.73 -7288499.36 4264.10 437674.03 -7288724.95 3522.08 437418.83 -7288463.00 4266.93 437733.48
  -7288692.90 3526.21 437484.94 -7288426.64 4268.68 437792.93 -7288660.85 3528.31 437551.04 -7288390.27 4269.50 435679.90
  -7289764.51 3293.97 434976.56 -7289786.67 3867.71 435744.58 -7289711.55 3292.60 435000.79 -7289768.45 3869.10 435809.27
  -7289658.59 3289.56 435025.02 -7289750.24 3872.11 435639.74 -7289641.53 3414.74 435544.67 -7289656.10 3468.03 435660.89
  -7289658.05 3415.31 435561.00 -7289672.76 3471.28 435721.16 -7289609.74 3421.59 435621.96 -7289619.15 3479.86 435771.63
  -7289568.40 3434.14 435682.89 -7289572.28 3487.46 435822.27 -7289532.35 3445.77 435738.76 -7289532.02 3499.15 435876.44
  -7289497.70 3454.59 435794.35 -7289493.47 3511.49 435930.02 -7289462.36 3468.00 435852.29 -7289454.78 3526.00 435990.37
  -7289427.37 3475.56 435914.40 -7289416.94 3537.21 436045.32 -7289392.16 3491.12 435981.23 -7289381.28 3547.80 436106.26
  -7289358.45 3502.71 436049.90 -7289347.20 3558.14 436172.34 -7289325.64 3511.70 436119.88 -7289313.37 3567.21 436236.42
  -7289291.45 3520.52 436187.62 -7289277.86 3578.39 436300.28 -7289256.31 3534.41 436255.25 -7289241.18 3593.10 436365.20
  -7289221.59 3543.43 436323.17 -7289204.65 3605.55 436432.22 -7289187.90 3555.77 436393.16 -7289169.50 3618.12 436507.39
  -7289160.49 3558.91 436467.02 -7289139.05 3631.47 436604.22 -7289154.82 3561.31 436553.65 -7289126.30 3649.00 436652.88
  -7289107.78 3567.20 436606.72 -7289075.73 3673.13 436704.67 -7289062.56 3569.58 436660.04 -7289024.21 3683.64 436749.15
  -7289019.73 3575.12 436686.96 -7288962.49 3710.17 436901.45 -7289069.88 3393.86 436615.34 -7288803.33 4114.41 436962.12
  -7289035.72 3404.91 436679.88 -7288769.46 4132.43 437022.79 -7289001.56 3415.38 436744.43 -7288735.60 4152.72 437083.45
  -7288967.40 3426.77 436808.98 -7288701.73 4173.79 437144.12 -7288933.23 3439.16 436873.52 -7288667.86 4193.39 437204.79
  -7288899.07 3451.87 436938.07 -7288633.99 4211.05 437265.45 -7288864.91 3464.61 437002.61 -7288600.12 4226.23 437326.12
  -7288830.75 3477.12 437067.16 -7288566.26 4238.70 437386.79 -7288796.59 3489.02 437131.71 -7288532.39 4248.58 437447.45
  -7288762.42 3500.00 437196.25 -7288498.52 4256.09 437508.12 -7288728.26 3509.69 437260.80 -7288464.65 4261.61 437568.79
  -7288694.10 3517.78 437325.34 -7288430.78 4265.48 437629.45 -7288659.94 3524.00 437389.89 -7288396.92 4268.07 437690.12
  -7288625.78 3528.24 437454.44 -7288363.05 4269.66 437750.79 -7288591.61 3530.36 437518.98 -7288329.18 4270.41 435628.00
  -7289701.68 3297.00 434942.47 -7289734.77 3864.68 435681.72 -7289657.23 3296.56 434966.22 -7289723.25 3865.46 435735.44
  -7289612.78 3295.86 434989.98 -7289711.73 3866.91 435590.49 -7289595.18 3413.20 435512.25 -7289606.37 3460.48 435619.60
  -7289583.74 3418.83 435533.62 -7289595.32 3470.02 435664.95 -7289550.74 3426.79 435579.45 -7289557.94 3479.29 435713.95
  -7289510.60 3437.29 435634.33 -7289512.67 3487.58 435764.05 -7289471.31 3449.40 435690.98 -7289469.02 3498.62 435820.91
  -7289434.26 3458.33 435747.19 -7289427.93 3512.41 435875.36 -7289397.89 3470.43 435806.52 -7289388.44 3524.98 435933.19
  -7289362.08 3482.80 435868.49 -7289350.11 3537.23 435992.35 -7289326.61 3495.55 435933.56 -7289313.15 3549.03 436054.16
  -7289291.81 3506.94 436001.83 -7289277.55 3559.75 436120.22 -7289258.09 3516.95 436071.46 -7289242.52 3570.13 436185.05
  -7289223.65 3529.65 436141.77 -7289207.49 3581.79 436252.78 -7289190.06 3540.16 436211.95 -7289172.26 3594.02 436321.54
  -7289157.21 3549.01 436282.82 -7289137.69 3607.60 436394.07 -7289127.36 3560.10 436356.22 -7289105.68 3622.14 436470.37
  -7289101.72 3562.81 436431.48 -7289076.91 3635.33 436555.11 -7289083.59 3561.15 436502.96 -7289046.62 3653.72 436621.48
  -7289052.04 3566.28 436564.76 -7289006.38 3678.51 436683.32 -7289015.53 3570.37 436628.66 -7288966.35 3702.66 436764.00
  -7288993.40 3583.42 436702.22 -7288934.83 3717.52 436802.98 -7288948.18 3588.37 436730.70 -7288875.47 3744.40 436829.80
  -7288896.89 3590.77 436756.55 -7288818.71 3769.41 436994.62 -7288971.75 3414.22 436689.86 -7288645.48 4151.64 437054.31
  -7288934.39 3425.23 436756.02 -7288614.04 4176.27 437113.99 -7288897.03 3438.59 436822.18 -7288582.59 4197.02 437173.68
  -7288859.68 3451.85 436888.33 -7288551.15 4215.71 437233.36 -7288822.32 3465.17 436954.49 -7288519.71 4231.41 437293.05
  -7288784.96 3478.33 437020.65 -7288488.26 4243.74 437352.73 -7288747.61 3490.94 437086.81 -7288456.82 4253.17 437412.42
  -7288710.25 3502.59 437152.96 -7288425.38 4260.11 437472.10 -7288672.89 3512.89 437219.12 -7288393.93 4264.94 437531.78
  -7288635.54 3521.40 437285.28 -7288362.49 4268.22 437591.47 -7288598.18 3527.94 437351.44 -7288331.05 4270.30 437651.15
  -7288560.82 3532.32 437417.59 -7288299.60 4271.56 437710.84 -7288523.47 3534.54 437483.75 -7288268.16 4272.14 435576.54
  -7289636.99 3300.48 434907.80 -7289682.57 3860.86 435619.72 -7289599.19 3300.72 434930.51 -7289677.44 3861.02 435662.90
  -7289561.39 3300.59 434953.22 -7289672.32 3861.61 435541.31 -7289547.95 3406.57 435468.28 -7289559.69 3454.65 435565.72
  -7289522.93 3419.85 435495.15 -7289532.67 3465.05 435610.31 -7289488.69 3431.59 435541.05 -7289493.97 3476.22 435659.48
  -7289450.95 3442.35 435592.08 -7289451.73 3486.29 435708.74 -7289411.67 3456.09 435646.64 -7289408.34 3499.70 435766.03
  -7289373.21 3464.12 435702.25 -7289365.76 3513.45 435823.13 -7289335.65 3472.64 435762.54 -7289324.93 3523.45 435881.41
  -7289298.73 3485.26 435823.89 -7289285.25 3536.36 435942.51 -7289262.58 3495.97 435888.75 -7289246.97 3547.83 436006.26
  -7289227.25 3507.82 435956.29 -7289209.92 3559.66 436071.00 -7289192.24 3519.46 436026.18 -7289174.06 3570.59 436138.23
  -7289158.26 3530.18 436097.35 -7289139.10 3582.04 436207.62 -7289125.50 3541.90 436169.32 -7289104.96 3594.27 436279.10
  -7289094.34 3550.86 436243.28 -7289072.60 3605.56 436352.63 -7289065.26 3560.82 436317.41 -7289041.33 3620.13 436425.84
  -7289036.83 3567.97 436388.83 -7289008.91 3639.04 436498.61 -7289008.69 3574.55 436456.89 -7288973.84 3661.29 436572.58
  -7288982.43 3575.40 436524.51 -7288938.46 3683.60 436650.56 -7288960.71 3577.25 436591.02 -7288901.90 3706.19 436713.81
  -7288925.78 3578.94 436655.34 -7288864.12 3725.07 436778.01 -7288893.63 3586.84 436714.49 -7288823.58 3746.57 436849.39
  -7288864.87 3592.77 436780.43 -7288787.83 3763.96 436884.21 -7288824.80 3603.48 436814.06 -7288739.45 3770.88 437027.84
  -7288888.90 3421.34 436748.63 -7288550.93 4182.65 437086.32 -7288849.39 3438.10 436812.60 -7288519.86 4202.73 437144.80
  -7288809.88 3451.76 436876.57 -7288488.79 4223.35 437203.28 -7288770.37 3465.89 436940.54 -7288457.73 4239.96 437261.76
  -7288730.85 3480.14 437004.52 -7288426.66 4251.61 437320.24 -7288691.34 3493.80 437068.49 -7288395.59 4260.28 437378.72
  -7288651.83 3506.59 437132.46 -7288364.52 4266.18 437437.20 -7288612.32 3517.79 437196.43 -7288333.46 4269.95 437495.68
  -7288572.81 3527.05 437260.40 -7288302.39 4272.12 437554.16 -7288533.30 3534.02 437324.38 -7288271.32 4273.40 437612.64
  -7288493.79 3538.66 437388.35 -7288240.26 4274.16 437671.11 -7288454.28 3540.95 437452.32 -7288209.19 4274.52 435529.89
  -7289552.82 3303.78 434878.45 -7289626.19 3856.81 435567.35 -7289502.18 3305.28 434905.43 -7289623.29 3856.11 435467.81
  -7289478.22 3405.11 435408.72 -7289490.48 3446.67 435482.21 -7289496.36 3407.55 435419.60 -7289508.48 3450.75 435519.98
  -7289462.59 3417.10 435459.03 -7289471.91 3459.93 435568.33 -7289426.15 3429.76 435510.73 -7289430.49 3470.99 435612.76
  -7289390.18 3442.59 435553.78 -7289390.19 3483.52 435664.53 -7289352.43 3455.18 435606.58 -7289348.14 3497.20 435719.82
  -7289314.04 3464.50 435663.10 -7289305.72 3509.47 435778.32 -7289276.10 3472.71 435721.59 -7289263.77 3522.00 435836.30
  -7289238.17 3483.21 435783.23 -7289222.98 3534.04 435898.40 -7289201.45 3494.36 435847.22 -7289183.31 3546.80 435961.86
  -7289165.26 3505.98 435913.87 -7289144.94 3559.25 436028.66 -7289130.59 3516.26 435983.03 -7289108.07 3571.71 436096.07
  -7289096.40 3527.85 436054.91 -7289073.13 3582.47 436172.33 -7289067.91 3537.48 436130.86 -7289041.42 3592.12 436244.46
  -7289037.68 3547.62 436205.31 -7289009.71 3604.06 436316.50 -7289007.84 3558.32 436278.36 -7288977.63 3618.79 436388.29
  -7288978.25 3567.72 436348.31 -7288943.38 3637.59 436460.54 -7288949.65 3577.66 436415.71 -7288906.92 3661.92 436533.01
  -7288921.99 3584.45 436482.74 -7288870.29 3688.95 436605.30 -7288895.12 3586.70 436549.47 -7288833.75 3712.22 436670.79
  -7288861.63 3589.42 436616.35 -7288798.05 3732.13 436743.30 -7288835.33 3593.77 436685.10 -7288764.10 3753.41 436818.64
  -7288812.04 3592.01 436757.07 -7288734.05 3763.77 436899.07 -7288790.57 3613.14 436837.78 -7288710.78 3771.36 436923.28
  -7288739.87 3621.17 436872.80 -7288665.88 3767.59 436948.93 -7288691.99 3626.07 436907.82 -7288623.59 3771.38 437078.69
  -7288764.31 3451.21 436865.01 -7288419.60 4235.03 437139.69 -7288722.22 3466.50 436926.77 -7288389.59 4253.47 437200.68
  -7288680.13 3482.51 436988.54 -7288359.58 4262.56 437261.68 -7288638.04 3497.61 437050.31 -7288329.58 4270.14 437322.68
  -7288595.96 3512.11 437112.07 -7288299.57 4274.46 437383.68 -7288553.87 3524.70 437173.84 -7288269.56 4276.46 437444.67
  -7288511.78 3534.97 437235.61 -7288239.55 4276.95 437505.67 -7288469.69 3542.47 437297.38 -7288209.55 4277.03 437566.67
  -7288427.60 3547.34 437359.14 -7288179.54 4277.15 437627.67 -7288385.52 3549.70 437420.91 -7288149.53 4277.28 435480.48
  -7289484.26 3305.61 434845.59 -7289575.43 3853.38 435509.47 -7289436.41 3308.57 434873.33 -7289580.36 3851.65 435424.34
  -7289417.89 3399.76 435372.26 -7289431.75 3437.31 435444.08 -7289416.03 3406.15 435387.25 -7289430.28 3445.89 435482.66
  -7289394.06 3413.33 435426.89 -7289403.56 3454.69 435525.85 -7289363.51 3425.51 435473.26 -7289367.82 3466.34 435572.45
  -7289329.36 3437.64 435521.44 -7289329.04 3479.35 435626.49 -7289293.42 3448.42 435570.58 -7289288.25 3492.11 435681.97
  -7289256.36 3459.55 435626.48 -7289246.55 3505.31 435738.76 -7289218.59 3471.42 435684.81 -7289204.59 3519.52 435797.13
  -7289180.62 3480.49 435745.40 -7289162.97 3531.79 435857.18 -7289142.78 3491.28 435808.94 -7289122.42 3543.70 435921.30
  -7289106.45 3503.28 435874.83 -7289083.06 3557.91 435986.63 -7289070.65 3513.84 435943.90 -7289045.69 3569.38 436063.69
  -7289042.45 3521.43 436018.99 -7289012.71 3579.72 436133.67 -7289010.43 3533.37 436093.20 -7288980.23 3590.08 436205.76
  -7288980.26 3541.32 436167.16 -7288948.34 3600.90 436278.06 -7288950.66 3551.40 436238.63 -7288914.85 3616.93 436348.05
  -7288919.23 3564.20 436307.83 -7288879.43 3636.96 436421.53 -7288891.71 3571.66 436374.80 -7288841.74 3662.54 436492.05
  -7288861.72 3582.87 436441.45 -7288803.74 3691.27 436556.83 -7288825.42 3591.12 436509.51 -7288767.62 3717.52 436627.59
  -7288796.46 3600.95 436579.08 -7288733.49 3739.54 436706.18 -7288778.19 3607.13 436651.17 -7288702.56 3754.00 436778.21
  -7288753.43 3607.03 436723.61 -7288674.05 3761.21 436845.07 -7288726.42 3609.19 436792.91 -7288645.77 3763.96 436899.84
  -7288688.72 3616.63 436857.02 -7288616.80 3768.42 436964.71 -7288656.90 3638.81 436929.84 -7288593.46 3775.61 436989.67
  -7288605.60 3661.90 436964.23 -7288552.06 3767.50 437029.66 -7288562.56 3669.37 437002.40 -7288506.57 3784.97 437141.52
  -7288618.98 3485.85 436971.70 -7288292.08 4274.98 437204.80 -7288575.62 3502.00 437031.37 -7288263.19 4283.31 437268.08
  -7288532.26 3519.61 437091.04 -7288234.29 4285.03 437331.35 -7288488.90 3533.93 437150.71 -7288205.40 4284.58 437394.63
  -7288445.53 3545.69 437210.38 -7288176.50 4282.17 437457.90 -7288402.17 3553.57 437270.05 -7288147.61 4280.65 437521.18
  -7288358.81 3558.54 437329.72 -7288118.72 4280.02 437584.46 -7288315.45 3560.85 437389.39 -7288089.82 4280.11 435432.90
  -7289412.68 3304.49 434812.54 -7289524.19 3851.62 435455.23 -7289364.60 3306.39 434840.84 -7289536.47 3849.56 435374.55
  -7289351.94 3390.34 435318.07 -7289371.74 3433.68 435402.48 -7289340.90 3403.10 435350.17 -7289355.95 3441.97 435445.49
  -7289321.69 3410.23 435393.21 -7289331.72 3451.36 435488.70 -7289297.07 3421.08 435439.14 -7289301.64 3462.16 435535.24
  -7289267.04 3432.69 435487.23 -7289266.64 3474.91 435590.50 -7289233.97 3443.96 435542.11 -7289228.72 3487.93 435642.12
  -7289198.19 3455.98 435591.79 -7289187.78 3500.70 435699.72 -7289161.66 3468.79 435649.03 -7289146.26 3515.15 435758.08
  -7289124.14 3478.51 435708.80 -7289104.43 3528.23 435817.27 -7289085.89 3488.96 435771.11 -7289063.05 3541.35 435880.98
  -7289049.16 3500.88 435837.32 -7289023.47 3554.33 435947.16 -7289013.63 3510.25 435905.30 -7288985.12 3567.46 436016.50
  -7288980.25 3519.86 435976.56 -7288949.44 3578.92 436091.33 -7288951.65 3530.76 436053.17 -7288918.86 3588.87 436162.27
  -7288920.20 3539.97 436127.74 -7288887.59 3596.83 436236.29 -7288892.03 3547.55 436201.55 -7288856.36 3608.48 436307.76
  -7288861.67 3556.69 436270.55 -7288820.48 3628.84 436376.82 -7288828.85 3561.56 436334.71 -7288778.91 3657.18 436452.25
  -7288804.30 3574.83 436402.49 -7288741.31 3686.83 436518.34 -7288768.58 3585.21 436470.88 -7288704.44 3714.86 436591.11
  -7288742.40 3604.39 436541.90 -7288671.21 3735.23 436659.47 -7288711.27 3616.74 436613.80 -7288640.19 3750.78 436724.52
  -7288677.47 3619.09 436685.50 -7288611.73 3756.86 436790.98 -7288649.83 3623.72 436754.68 -7288583.38 3765.58 436855.47
  -7288619.31 3636.57 436824.62 -7288558.34 3767.35 436915.27 -7288586.09 3648.23 436890.64 -7288534.16 3759.15 436974.41
  -7288554.50 3658.27 436950.94 -7288503.67 3768.28 437046.36 -7288525.99 3674.02 437026.98 -7288486.88 3759.50 437088.29
  -7288485.96 3676.38 437067.28 -7288445.45 3766.40 437122.49 -7288432.62 3689.78 437100.21 -7288392.59 3782.17 437152.08
  -7288378.32 3701.63 437126.88 -7288337.09 3797.85 437272.15 -7288421.20 3545.75 437085.66 -7288135.16 4294.61 437339.08
  -7288377.11 3560.35 437151.62 -7288108.59 4286.58 437406.01 -7288333.02 3567.65 437217.58 -7288082.03 4283.34 437472.94
  -7288288.93 3572.38 437283.53 -7288055.46 4282.17 437539.87 -7288244.83 3574.29 437349.49 -7288028.90 4282.94 435391.66
  -7289307.24 3301.51 434794.33 -7289476.87 3851.96 435298.50 -7289280.16 3390.36 435246.55 -7289305.01 3430.65 435307.54
  -7289290.96 3390.35 435252.82 -7289316.38 3432.39 435363.51 -7289268.33 3397.99 435312.37 -7289285.65 3438.77 435406.42
  -7289250.22 3409.44 435358.94 -7289260.82 3449.01 435451.76 -7289228.68 3418.80 435403.67 -7289233.96 3461.55 435500.73
  -7289202.72 3428.22 435454.18 -7289202.51 3472.24 435550.41 -7289172.71 3439.63 435506.08 -7289167.38 3483.88 435605.85
  -7289140.06 3451.19 435562.18 -7289129.77 3495.68 435659.30 -7289104.11 3463.66 435613.78 -7289088.17 3509.67 435718.67
  -7289067.89 3474.56 435672.85 -7289046.68 3523.62 435778.30 -7289030.24 3486.34 435734.01 -7289004.82 3538.58 435841.35
  -7288993.30 3497.90 435798.77 -7288964.25 3552.52 435906.43 -7288956.89 3508.84 435866.56 -7288925.53 3565.23 435975.32
  -7288923.06 3517.93 435937.42 -7288889.46 3575.66 436051.18 -7288895.88 3524.80 436014.49 -7288859.91 3584.19 436122.00
  -7288864.23 3533.49 436087.32 -7288827.21 3594.48 436193.47 -7288833.26 3545.11 436160.33 -7288795.21 3607.17 436266.15
  -7288803.95 3551.92 436231.31 -7288761.25 3623.44 436334.53 -7288769.59 3559.54 436296.19 -7288719.64 3648.60 436407.45
  -7288741.72 3563.86 436364.08 -7288681.58 3677.29 436477.53 -7288710.90 3580.56 436433.24 -7288645.12 3704.75 436543.88
  -7288675.30 3598.88 436503.80 -7288610.92 3726.85 436610.05 -7288640.58 3616.91 436575.00 -7288578.92 3745.15 436676.14
  -7288607.81 3629.54 436646.06 -7288549.18 3757.24 436742.84 -7288578.56 3639.45 436716.44 -7288521.47 3764.19 436807.48
  -7288546.39 3656.90 436786.44 -7288496.71 3765.62 436871.75 -7288517.09 3660.54 436853.39 -7288471.31 3762.62 436937.26
  -7288489.09 3663.96 436920.10 -7288446.30 3760.70 436997.98 -7288457.22 3667.09 436980.29 -7288414.80 3764.70 437051.82
  -7288418.02 3677.55 437032.49 -7288375.61 3775.72 437108.84 -7288375.75 3689.71 437085.86 -7288332.57 3791.45 437178.64
  -7288339.54 3706.14 437148.41 -7288293.93 3814.97 437211.24 -7288283.09 3727.03 437175.96 -7288235.02 3843.02 437241.93
  -7288209.80 3776.60 437210.32 -7288170.64 3870.27 437385.40 -7288267.12 3584.30 437160.29 -7287998.81 4283.93 437445.56
  -7288221.21 3589.04 437234.14 -7287980.46 4282.32 437505.72 -7288175.31 3589.68 437307.98 -7287962.10 4286.57 435342.77
  -7289235.43 3298.25 434764.36 -7289427.96 3853.85 435255.19 -7289210.28 3381.60 435205.12 -7289238.62 3422.82 435283.68
  -7289207.83 3389.88 435235.21 -7289231.72 3430.35 435322.99 -7289195.65 3398.39 435275.97 -7289213.92 3438.91 435366.59
  -7289179.21 3409.01 435320.08 -7289191.62 3450.71 435414.74 -7289159.40 3416.81 435368.09 -7289165.90 3461.25 435464.97
  -7289136.66 3424.02 435418.89 -7289137.05 3470.79 435514.02 -7289110.20 3434.44 435471.39 -7289104.86 3480.03 435568.38
  -7289080.51 3446.44 435526.83 -7289069.66 3492.51 435623.69 -7289047.65 3458.61 435583.28 -7289031.59 3506.03 435679.22
  -7289011.48 3471.57 435640.12 -7288990.70 3520.97 435738.42 -7288974.37 3483.54 435697.10 -7288947.02 3535.73 435802.17
  -7288938.39 3494.04 435760.78 -7288905.81 3549.84 435866.55 -7288901.54 3505.39 435827.98 -7288866.63 3562.06 435933.91
  -7288866.34 3514.94 435897.96 -7288829.89 3572.07 436005.72 -7288835.36 3523.51 435973.35 -7288799.40 3580.69 436078.42
  -7288805.46 3530.44 436046.74 -7288767.56 3589.81 436148.96 -7288772.92 3543.81 436120.04 -7288736.14 3601.15 436220.62
  -7288741.88 3552.81 436191.34 -7288702.54 3616.29 436293.81 -7288713.51 3561.69 436260.85 -7288666.77 3636.96 436361.69
  -7288678.32 3567.67 436325.66 -7288624.10 3664.24 436432.30 -7288648.10 3580.69 436394.77 -7288587.45 3692.72 436500.71
  -7288615.77 3592.33 436464.83 -7288552.48 3717.35 436565.41 -7288578.14 3617.17 436535.15 -7288518.74 3739.82 436631.36
  -7288544.21 3632.62 436606.22 -7288488.27 3753.13 436697.64 -7288512.80 3646.95 436676.70 -7288459.61 3764.38 436762.99
  -7288481.18 3659.85 436745.84 -7288432.11 3770.92 436827.99 -7288450.79 3668.03 436813.29 -7288405.29 3772.12 436892.50
  -7288421.55 3673.53 436878.54 -7288377.60 3773.82 436953.91 -7288388.64 3678.41 436939.00 -7288343.94 3782.12 437019.22
  -7288360.40 3687.00 437001.27 -7288313.17 3792.09 437079.54 -7288311.96 3696.17 437058.22 -7288265.45 3806.62 437139.66
  -7288266.57 3719.41 437113.62 -7288219.83 3831.07 437194.84 -7288217.25 3749.57 437166.10 -7288174.68 3857.00 437255.65
  -7288174.46 3794.54 437223.64 -7288136.28 3893.19 437294.98 -7288111.68 3816.87 437262.43 -7288075.65 3909.57 437337.03
  -7288056.51 3868.70 437307.79 -7288026.98 3950.81 437488.50 -7288112.25 3605.76 437266.56 -7287888.51 4294.44 435294.40
  -7289162.06 3294.66 434734.63 -7289378.32 3856.80 435208.78 -7289138.82 3375.90 435157.30 -7289173.11 3421.31 435246.64
  -7289130.84 3388.74 435201.09 -7289156.30 3429.42 435283.77 -7289121.12 3397.60 435238.34 -7289141.38 3440.20 435330.31
  -7289105.66 3404.58 435282.95 -7289120.78 3451.00 435378.49 -7289088.39 3412.81 435331.93 -7289096.82 3460.76 435426.87
  -7289068.76 3422.10 435382.81 -7289070.27 3469.98 435475.97 -7289045.58 3432.22 435433.76 -7289040.52 3481.30 435527.30
  -7289018.34 3444.24 435487.80 -7289007.26 3493.62 435586.17 -7288989.54 3454.99 435546.30 -7288971.83 3506.52 435641.53
  -7288955.54 3466.97 435602.59 -7288931.92 3520.73 435699.75 -7288919.25 3478.86 435662.66 -7288890.97 3534.07 435763.40
  -7288884.23 3490.21 435726.90 -7288851.09 3547.19 435827.62 -7288847.65 3500.59 435793.01 -7288811.63 3558.86 435895.65
  -7288813.50 3510.59 435862.69 -7288775.38 3568.84 435965.47 -7288780.64 3518.24 435934.49 -7288741.82 3576.51 436034.48
  -7288746.09 3530.13 436006.41 -7288708.71 3587.00 436104.75 -7288712.72 3543.47 436079.10 -7288676.86 3598.29 436176.46
  -7288681.52 3551.77 436151.06 -7288644.42 3610.07 436242.96 -7288643.08 3563.00 436216.86 -7288603.14 3627.80 436314.51
  -7288612.94 3570.57 436286.21 -7288567.18 3649.50 436385.46 -7288583.04 3584.29 436355.65 -7288531.33 3676.04 436455.07
  -7288552.43 3593.72 436425.15 -7288495.54 3702.00 436524.49 -7288523.79 3616.18 436495.93 -7288462.70 3727.18 436588.24
  -7288484.76 3626.79 436565.63 -7288428.86 3742.73 436654.60 -7288453.79 3636.70 436635.42 -7288397.59 3758.54 436718.76
  -7288418.90 3657.84 436704.09 -7288367.64 3772.72 436783.35 -7288388.08 3666.93 436771.00 -7288337.91 3780.51 436847.11
  -7288356.82 3672.70 436835.84 -7288307.40 3785.99 436910.81 -7288323.14 3680.93 436898.81 -7288272.83 3798.52 436978.01
  -7288292.30 3695.11 436963.15 -7288239.47 3812.38 437041.53 -7288242.32 3708.33 437023.65 -7288191.73 3831.88 437103.38
  -7288190.61 3740.32 437083.38 -7288146.14 3851.46 437163.27 -7288136.06 3778.15 437141.90 -7288098.77 3878.84 437221.65
  -7288083.79 3807.27 437196.76 -7288048.37 3909.01 437281.12 -7288029.32 3839.48 437254.06 -7287996.14 3934.25 437354.69
  -7287973.58 3884.25 437321.02 -7287937.22 3985.96 437387.36 -7287882.62 3892.55 437361.61 -7287852.81 3974.74 435247.68
  -7289087.10 3290.59 434704.59 -7289328.67 3858.20 435153.62 -7289072.72 3378.30 435109.53 -7289107.07 3420.52 435205.43
  -7289055.08 3381.22 435154.49 -7289088.33 3431.23 435245.82 -7289044.98 3394.80 435199.65 -7289069.15 3441.11 435287.47
  -7289032.78 3404.06 435243.04 -7289049.96 3451.59 435335.53 -7289016.77 3413.69 435291.91 -7289027.15 3462.29 435383.72
  -7288999.01 3424.03 435341.56 -7289002.22 3473.65 435433.52 -7288978.20 3434.49 435393.62 -7288974.24 3485.14 435486.12
  -7288953.98 3446.23 435448.10 -7288943.05 3497.96 435544.46 -7288927.84 3455.60 435507.70 -7288909.98 3508.08 435604.71
  -7288899.38 3463.06 435567.59 -7288873.87 3519.51 435662.78 -7288865.26 3474.89 435628.13 -7288834.79 3532.02 435726.15
  -7288831.76 3485.81 435691.82 -7288795.69 3545.03 435788.42 -7288793.80 3496.68 435756.33 -7288755.32 3556.91 435855.32
  -7288758.75 3506.23 435824.06 -7288717.55 3567.66 435922.04 -7288721.60 3517.02 435893.27 -7288681.16 3578.29 435990.88
  -7288686.17 3530.47 435964.36 -7288647.17 3589.80 436057.28 -7288646.66 3539.65 436032.43 -7288608.81 3597.46 436127.64
  -7288613.52 3548.49 436103.48 -7288575.46 3609.51 436202.17 -7288587.88 3563.02 436178.68 -7288549.41 3624.91 436268.93
  -7288550.04 3569.14 436244.39 -7288507.84 3642.47 436342.77 -7288525.20 3587.28 436317.52 -7288478.81 3665.39 436408.27
  -7288486.20 3596.23 436384.62 -7288438.76 3684.63 436478.39 -7288458.21 3616.92 436455.76 -7288407.13 3711.06 436543.44
  -7288421.31 3626.79 436523.81 -7288369.49 3731.17 436609.55 -7288389.88 3635.51 436593.20 -7288336.95 3747.83 436674.07
  -7288357.45 3650.27 436661.16 -7288303.50 3768.65 436737.62 -7288324.83 3664.37 436728.04 -7288271.60 3782.06 436800.97
  -7288291.75 3672.44 436793.30 -7288237.65 3797.85 436866.25 -7288262.76 3689.43 436858.72 -7288206.24 3812.65 436932.80
  -7288222.04 3706.37 436924.20 -7288168.42 3824.72 437000.02 -7288171.17 3739.48 436989.20 -7288122.37 3849.40 437063.77
  -7288106.01 3776.38 437052.22 -7288069.41 3872.90 437127.68 -7288048.19 3812.68 437113.99 -7288017.35 3900.97 437189.93
  -7287992.35 3839.40 437173.08 -7287963.94 3925.88 437253.65 -7287940.95 3864.62 437230.59 -7287910.12 3948.37 437301.99
  -7287884.38 3880.09 437279.96 -7287858.96 3963.87 437338.20 -7287838.09 3896.78 437314.62 -7287811.65 3978.01 435202.80
  -7289010.23 3288.97 434674.17 -7289278.87 3858.51 435110.64 -7288996.86 3376.08 435066.12 -7289037.08 3420.64 435156.88
  -7288983.39 3383.59 435110.71 -7289018.75 3431.39 435205.74 -7288968.28 3387.68 435156.16 -7288999.23 3441.62 435247.01
  -7288957.57 3401.96 435202.25 -7288978.87 3452.70 435292.88 -7288943.35 3412.19 435249.38 -7288957.09 3464.82 435344.34
  -7288926.60 3419.30 435300.36 -7288932.72 3476.48 435392.76 -7288908.46 3433.66 435353.14 -7288906.19 3488.92 435446.07
  -7288887.36 3443.51 435408.75 -7288877.07 3500.46 435503.38 -7288864.00 3453.39 435467.78 -7288845.68 3512.62 435565.45
  -7288839.97 3462.93 435530.35 -7288813.03 3524.28 435625.46 -7288810.35 3472.45 435592.76 -7288777.14 3534.52 435687.91
  -7288778.24 3483.00 435656.51 -7288739.74 3545.83 435749.85 -7288740.57 3494.24 435720.32 -7288699.61 3557.50 435814.48
  -7288702.98 3504.74 435786.38 -7288660.93 3566.99 435880.68 -7288663.87 3516.90 435853.75 -7288621.78 3580.06 435947.52
  -7288624.42 3531.32 435923.55 -7288585.90 3589.96 436018.08 -7288591.92 3539.30 435995.03 -7288553.99 3597.71 436086.29
  -7288556.70 3550.21 436064.97 -7288520.71 3607.82 436154.92 -7288522.17 3566.15 436136.10 -7288489.37 3619.28 436221.74
  -7288483.79 3575.09 436202.30 -7288448.51 3635.70 436291.68 -7288450.89 3592.39 436272.89 -7288414.81 3655.48 436360.85
  -7288417.54 3603.37 436342.44 -7288379.37 3675.62 436429.11 -7288384.20 3620.55 436411.73 -7288344.06 3698.43 436497.02
  -7288352.92 3630.67 436481.06 -7288310.06 3716.07 436563.52 -7288321.86 3639.28 436549.48 -7288275.05 3738.27 436628.12
  -7288289.52 3654.05 436617.49 -7288240.83 3758.61 436691.44 -7288256.61 3667.25 436684.60 -7288206.46 3776.97 436754.93
  -7288230.27 3678.33 436751.10 -7288174.75 3798.14 436818.59 -7288191.88 3702.19 436817.12 -7288139.08 3814.95 436885.07
  -7288149.04 3723.32 436883.98 -7288097.11 3838.45 436954.43 -7288087.94 3757.65 436951.97 -7288046.62 3862.50 437024.37
  -7288024.93 3803.03 437019.60 -7287993.08 3892.77 437093.55 -7287967.70 3844.28 437084.43 -7287937.92 3919.97 437159.28
  -7287910.94 3865.69 437144.45 -7287881.78 3948.31 437219.81 -7287852.95 3884.87 437201.40 -7287827.37 3965.67 437281.29
  -7287785.02 3898.38 437260.43 -7287762.86 3973.39 437292.38 -7287795.52 3900.88 437271.96 -7287773.54 3974.34 435158.29
  -7288932.98 3288.73 434643.00 -7289229.53 3858.52 435066.10 -7288922.05 3376.21 435022.23 -7288967.62 3421.60 435110.23
  -7288909.92 3382.90 435064.82 -7288950.58 3432.57 435156.64 -7288895.67 3388.90 435109.76 -7288930.75 3443.49 435205.60
  -7288880.30 3395.64 435157.27 -7288908.96 3455.56 435249.07 -7288868.08 3409.81 435205.38 -7288886.59 3468.10 435299.73
  -7288852.28 3417.99 435256.58 -7288862.32 3480.78 435350.06 -7288835.84 3433.05 435310.93 -7288836.41 3493.89 435403.25
  -7288817.14 3445.11 435366.86 -7288808.59 3507.55 435460.63 -7288796.39 3457.67 435427.43 -7288779.20 3520.20 435523.59
  -7288775.65 3467.39 435492.06 -7288749.43 3531.12 435587.10 -7288752.25 3474.30 435557.60 -7288717.89 3540.03 435648.90
  -7288722.24 3485.56 435622.50 -7288683.62 3548.91 435709.32 -7288684.12 3493.65 435683.06 -7288641.98 3559.67 435774.32
  -7288646.41 3504.47 435748.68 -7288603.35 3569.52 435839.53 -7288603.06 3518.16 435816.24 -7288563.16 3579.81 435907.49
  -7288565.25 3527.03 435884.96 -7288526.13 3587.74 435973.21 -7288526.96 3542.02 435953.60 -7288492.34 3596.24 436036.62
  -7288485.37 3551.41 436018.03 -7288451.88 3605.86 436105.54 -7288451.28 3568.84 436089.93 -7288422.45 3616.80 436175.72
  -7288418.02 3582.52 436160.72 -7288389.42 3632.97 436244.71 -7288382.62 3598.52 436230.92 -7288355.14 3648.17 436312.88